unknown system                          
           1
     4.034659   -0.019940    0.027117
     0.017887    4.985913    0.005660
     0.020281   -0.006637    4.980041
   S    H 
   8  24
Direct configuration=    10
   0.77436540  0.31700941  0.71585432
   0.27736309  0.32153665  0.38823905
   0.27633167  0.96525058  0.76757481
   0.78010124  0.91168195  0.38044858
   0.76430054  0.76753320  0.85967230
   0.26196437  0.39854459  0.82800932
   0.22307526  0.81505294  0.18426354
   0.75466379  0.46969018  0.25831045
   0.24788468  0.32313211  0.09720938
  -0.02648289  0.20141576  0.08803048
  -0.00406298  0.20709666  0.50295884
   0.47985042  0.95183844  0.53813914
   0.56050453  0.19952530  0.53850172
   0.80412657  0.17612931  0.30312578
   0.55186703  0.14848000  0.11529256
   0.78929325  0.04786951  0.78501806
   0.02560231  0.96734030  0.56792516
   0.56157607  0.12530939  0.96831432
   0.95559297  0.05756595  0.02831234
   0.66679638  0.85134461  0.12318208
   0.03031282  0.58230703  0.91029751
   0.75274885  0.37730108  1.00237015
   0.47904412  0.60686443  0.15238700
   0.07306204  0.55012318  0.17734872
   0.25650673  0.69468514  0.72751522
   0.48170833  0.59996615  0.91890902
   0.33799453  0.07677923  0.25107058
   0.07590181  0.55490128  0.53407386
   0.96423238  0.67160781  0.59750940
   0.59413986  0.67336710  0.59538804
   0.45868720  0.56411115  0.53034478
   0.24382949  0.74474983  0.43255018
unknown system                          
           1
     4.037564   -0.057351    0.037852
     0.017845    4.958581    0.019546
     0.020193   -0.006608    4.958359
   S    H 
   8  24
Direct configuration=    20
   0.77704527  0.31923238  0.70756099
   0.28508139  0.31967983  0.38908167
   0.28384186  0.96795479  0.77110718
   0.78783037  0.91899867  0.37907889
   0.76324663  0.76126424  0.85513839
   0.26528327  0.40707310  0.82722884
   0.23063789  0.82691992  0.19490354
   0.75341029  0.46982533  0.26171614
   0.27621994  0.33639475  0.09186220
  -0.00661759  0.20822935  0.05696294
   0.01063966  0.19554290  0.48571089
   0.49199107  0.93709137  0.50646498
   0.53187158  0.19318223  0.53711568
   0.77137712  0.16496187  0.26150271
   0.55443416  0.12474069  0.11019296
   0.79923484  0.04844131  0.80708766
  -0.01832935  0.97833442  0.61976252
   0.57778592  0.13000690  0.94330085
   0.97614758  0.05265072  0.02444945
   0.66786487  0.85577742  0.11141988
   0.01448956  0.58077516  0.96469068
   0.75967659  0.40465637  0.98959961
   0.50010475  0.62330092  0.18869462
   0.08998525  0.57000187  0.19432298
   0.24110012  0.69402123  0.72718940
   0.49725585  0.59865542  0.93138732
   0.31840507  0.09033166  0.23140913
   0.09153777  0.55298794  0.51895027
   0.92748939  0.66710395  0.54862056
   0.59173491  0.65883616  0.62759065
   0.50143280  0.59194577  0.50241406
   0.26764344  0.77087966  0.46411074
unknown system                          
           1
     4.042273   -0.093080    0.048100
     0.017812    4.933539    0.033337
     0.020111   -0.006581    4.938184
   S    H 
   8  24
Direct configuration=    30
   0.78508601  0.31629113  0.69679845
   0.30068145  0.32379882  0.39211753
   0.29110772  0.96889036  0.78231367
   0.79284165  0.91555722  0.38358447
   0.77072134  0.75807103  0.85003315
   0.26190226  0.41443040  0.82983175
   0.24345565  0.83508622  0.19717887
   0.75750853  0.47324768  0.26273535
   0.33371220  0.37734554  0.09094250
  -0.00208556  0.22936225  0.08864552
   0.03497763  0.16226680  0.46677847
   0.47578354  0.93887946  0.53133225
   0.55456290  0.16315054  0.53142707
   0.76499589  0.21329089  0.26752335
   0.60413030  0.15374887  0.09399019
   0.78393486  0.04411490  0.82652837
   0.03581145  0.98048518  0.60663930
   0.49288641  0.16621938  0.94429961
   0.95863964  0.09621304  0.02964784
   0.65614415  0.90520913  0.09700166
   0.11117732  0.65167443  0.97403440
   0.71763554  0.37931145  0.98505437
   0.50137684  0.65654350  0.21669445
   0.08108980  0.54182989  0.21828151
   0.22429902  0.69679237  0.70751317
   0.47445972  0.62520468  0.96144691
   0.35962923  0.09205798  0.23910353
   0.11376322  0.55484360  0.51192627
   0.91863538  0.65550559  0.57784232
   0.51442457  0.63589248  0.63660772
   0.48145124  0.61163243  0.48781104
   0.23726559  0.76078477  0.48710062
unknown system                          
           1
     4.048969   -0.127338    0.058128
     0.017785    4.911450    0.046191
     0.020034   -0.006556    4.919492
   S    H 
   8  24
Direct configuration=    40
   0.79668642  0.31953218  0.69393717
   0.30865596  0.33088795  0.40048067
   0.29188056  0.96180649  0.79401437
   0.80134759  0.91572546  0.38218369
   0.78909682  0.76342067  0.84545558
   0.25461370  0.42150540  0.82807101
   0.24755127  0.83874137  0.19598149
   0.76913055  0.48536866  0.25216752
   0.31743638  0.39347753  0.13598388
   0.00936989  0.24518121  0.11985960
   0.04774174  0.16148578  0.37400884
   0.53152227  0.91365450  0.56929624
   0.50460632  0.16466628  0.52142375
   0.78996715  0.19500965  0.34142967
   0.68594578  0.14643753  0.09813905
   0.86197057  0.08230901  0.77782401
   0.10667120  1.00570221  0.56788107
   0.46367837  0.16655862  1.00332084
   1.03746524  0.11525045  0.03955786
   0.71408838  0.91756635  0.06610410
   0.02014415  0.63905964  0.98094770
   0.76116714  0.39540426  0.97141038
   0.51962118  0.68122336  0.16065332
   0.10744751  0.56698306  0.17756819
   0.21202960  0.69403572  0.69976312
   0.49919009  0.59660504  0.93184582
   0.39764942  0.10207105  0.18853677
   0.08969929  0.54678715  0.50452867
   0.95822864  0.67450754  0.58361248
   0.56172642  0.64613729  0.63980613
   0.47711055  0.61602057  0.50525487
   0.25440351  0.76560253  0.44863583
unknown system                          
           1
     4.058091   -0.160593    0.067686
     0.017764    4.892740    0.057380
     0.019971   -0.006536    4.903892
   S    H 
   8  24
Direct configuration=    50
   0.79796119  0.32583945  0.69350789
   0.30622303  0.34129974  0.40578546
   0.29595690  0.95599890  0.79934951
   0.80540435  0.91836586  0.37948127
   0.81301769  0.77775339  0.84618312
   0.25716291  0.41723846  0.82781290
   0.26853935  0.84145590  0.20084784
   0.77254899  0.49167865  0.24660472
   0.35881329  0.36405499  0.11629692
   0.01445206  0.23602143  0.07831103
   0.06537786  0.15196253  0.35389438
   0.56740364  0.94841693  0.60070569
   0.53015023  0.12711161  0.62678904
   0.67581868  0.20305543  0.37018289
   0.67866007  0.16589940  0.06848031
   0.85454948  0.06211684  0.74320056
   0.11014175  1.00822369  0.55440225
   0.60413361  0.12406309  0.90868583
   1.03171332  0.09452410  0.04314889
   0.75866526  0.93726270  0.08939482
   0.02059924  0.55896892  0.94522639
   0.72518478  0.37688770  0.97912865
   0.52960016  0.68491346  0.11150462
   0.08627909  0.58775547  0.20755589
   0.25303622  0.67458538  0.67255095
   0.52927056  0.55577894  0.90410423
   0.42043096  0.10761480  0.20328195
   0.13150934  0.57010543  0.45488250
   0.98597647  0.72299582  0.51899704
   0.60628754  0.62946866  0.62305622
   0.54062595  0.60585844  0.46690905
   0.40752800  0.79724639  0.44490945
unknown system                          
           1
     4.070147   -0.192682    0.076379
     0.017750    4.877493    0.067434
     0.019922   -0.006520    4.891887
   S    H 
   8  24
Direct configuration=    60
   0.81137093  0.33444968  0.68495897
   0.28368979  0.34941762  0.40198703
   0.29736199  0.94928742  0.79824294
   0.80971347  0.92355891  0.37841202
   0.83548152  0.78168568  0.84147368
   0.27069717  0.41138731  0.82127481
   0.28463557  0.84802629  0.20961165
   0.77162212  0.48455994  0.23678086
   0.27153932  0.34692493  0.08282907
  -0.02187260  0.24770150  0.05757560
   0.00671912  0.19593551  0.31550420
   0.58198957  0.96145388  0.58645566
   0.50463939  0.24160724  0.60092506
   0.58122173  0.16243337  0.32991730
   0.65373454  0.16733042  0.09147426
   0.86658665  0.08524862  0.77314666
   0.14813957  1.06171881  0.56753878
   0.56399682  0.06460892  0.97736308
   0.99365639  0.11392520  0.00255603
   0.77935897  0.90565304  0.09098616
   0.05285792  0.63225959  1.00295197
   0.64893103  0.35282138  0.96724206
   0.56827558  0.66122119  0.12977151
   0.16442435  0.54161524  0.19596683
   0.35128629  0.72185371  0.66726951
   0.49382108  0.67122267  0.89232194
   0.40986558  0.08777993  0.14380968
   0.12512344  0.59905277  0.54615882
   0.98506221  0.71207672  0.56597464
   0.58825035  0.62836181  0.63239698
   0.59178503  0.62210881  0.46177340
   0.34129848  0.85211455  0.48306753
unknown system                          
           1
     4.084711   -0.224319    0.084976
     0.017745    4.865460    0.076859
     0.019892   -0.006510    4.884627
   S    H 
   8  24
Direct configuration=    70
   0.83302489  0.35263140  0.67613463
   0.24989134  0.35735354  0.39421967
   0.29437613  0.96279826  0.79886794
   0.82672476  0.93287552  0.38301686
   0.84657562  0.78341999  0.83804024
   0.27698468  0.41287741  0.82140060
   0.29375148  0.84718417  0.21519566
   0.77155861  0.46554342  0.22858743
   0.25028400  0.32627884  0.07376670
  -0.05375277  0.27258090  0.04654052
  -0.02457118  0.15582161  0.27396123
   0.53813848  1.01989668  0.59937099
   0.57162024  0.21102962  0.49703352
   0.53588610  0.18074973  0.28502764
   0.68878927  0.13402855  0.10457876
   0.82140716  0.06305102  0.78096057
   0.13213629  1.08289839  0.57143153
   0.58817396  0.11575703  0.96209352
   1.07014827  0.07727894  0.00573485
   0.76364185  0.84137095  0.10813520
   0.09529454  0.59881953  0.93297531
   0.63313149  0.43537517  0.89783422
   0.49631265  0.56917098  0.14050410
   0.14518204  0.61489728  0.20728589
   0.39678169  0.68971281  0.67109251
   0.50456492  0.70523329  0.94910198
   0.26054170  0.16542898  0.18187934
   0.14492737  0.61985561  0.52540331
   0.97095717  0.70172379  0.53177924
   0.59015714  0.59915032  0.62471997
   0.53257066  0.64869834  0.44180644
   0.28373311  0.83720203  0.51614656
unknown system                          
           1
     4.101315   -0.255325    0.092897
     0.017749    4.856837    0.085208
     0.019878   -0.006505    4.881114
   S    H 
   8  24
Direct configuration=    80
   0.84521137  0.36233806  0.66198123
   0.22954003  0.36327447  0.39836930
   0.29177553  0.98944510  0.78800025
   0.83962005  0.94140733  0.38718014
   0.85052698  0.78459428  0.83549159
   0.28274035  0.41032375  0.81907819
   0.31175328  0.83954163  0.22111273
   0.76979171  0.43685673  0.22187364
   0.28545284  0.34545448  0.11666828
  -0.10310765  0.24928802 -0.05022544
  -0.05662876  0.16274623  0.18720116
   0.59212607  1.00363445  0.58899191
   0.50289790  0.23971491  0.51148499
   0.59815045  0.12765008  0.29229987
   0.61449707  0.06912385  0.05051319
   0.76275311  0.08211384  0.76248432
   0.13318900  1.06520106  0.53382228
   0.50147076  0.16483887  0.96053853
   0.96895041  0.09919909 -0.00607429
   0.71897282  0.83934713  0.12018012
   0.11467361  0.61563815  0.96535197
   0.62451573  0.45680349  0.93440673
   0.43118167  0.57595010  0.13872661
  -0.09786615  0.72257013  0.16503671
   0.33501772  0.69560966  0.71415765
   0.51581854  0.69815694  0.86108634
   0.23697506  0.09068700  0.17124509
   0.16025885  0.63363205  0.52204281
   0.91703144  0.65859959  0.47089160
   0.58966757  0.55841286  0.53122791
   0.51869092  0.69302312  0.46872672
   0.31263580  0.86055351  0.47998367
unknown system                          
           1
     4.119831   -0.286346    0.101519
     0.017760    4.850827    0.093289
     0.019878   -0.006505    4.880993
   S    H 
   8  24
Direct configuration=    90
   0.83343042  0.35111227  0.63351142
   0.22975082  0.36251014  0.39155916
   0.29486335  1.01187721  0.77877567
   0.85011590  0.94624391  0.38913070
   0.84835365  0.78588720  0.83129305
   0.30049645  0.41243088  0.82813654
   0.32233745  0.83541994  0.21705644
   0.77259937  0.40680710  0.20453031
   0.30164283  0.38098824  0.09654306
  -0.10698767  0.32280018 -0.08596076
  -0.01156866  0.12343353  0.13071755
   0.56179101  1.00364254  0.58844439
   0.54886248  0.24998263  0.52650886
   0.54606313  0.16582538  0.26755308
   0.60789397  0.08638079 -0.01798406
   0.76803290  0.04581947  0.75208165
   0.12559704  1.07399831  0.52265178
   0.58648335  0.23958877  0.99832629
   0.91792423  0.00375805 -0.01064602
   0.57196891  0.89580510  0.02140251
   0.13442342  0.57050287  1.04740934
   0.61217718  0.49045701  0.93973299
   0.53499708  0.56595070  0.20133435
  -0.10881656  0.67968175  0.16416026
   0.16004531  0.71328895  0.65874434
   0.51681261  0.70792515  0.82085780
   0.27220881  0.15469322  0.15996696
   0.16963251  0.66315606  0.47717755
   0.93230231  0.69083544  0.48499616
   0.51660455  0.56777396  0.49302929
   0.62255574  0.71737009  0.52356431
   0.35475553  0.90946252  0.48392563
unknown system                          
           1
     4.140912   -0.315868    0.110225
     0.017778    4.846616    0.101375
     0.019892   -0.006510    4.884634
   S    H 
   8  24
Direct configuration=   100
   0.81998604  0.33743233  0.61836489
   0.24808091  0.36116680  0.37755060
   0.29268922  1.03054821  0.77793999
   0.85242375  0.94742408  0.37997835
   0.84063665  0.77031026  0.84853808
   0.31770862  0.43454896  0.82939365
   0.32148739  0.82944957  0.19748970
   0.78825999  0.38904511  0.19178883
   0.37268831  0.42475222  0.11597150
  -0.01882666  0.36605517 -0.04382094
   0.09202879  0.16782936  0.04729439
   0.58306602  0.93477128  0.60633707
   0.51149502  0.20250466  0.50335676
   0.55550891  0.10424006  0.29397036
   0.64469568  0.08843895 -0.10003607
   0.88405585  0.09741244  0.76446045
   0.16429428  1.05919024  0.53469361
   0.57722860  0.22136612  0.99133910
   0.91392388 -0.00606548  0.08027890
   0.59699991  0.82019639  0.02205189
   0.13549298  0.65339632  0.99334837
   0.65044124  0.53199957  0.86361068
   0.52481826  0.65017389  0.26763967
  -0.11149086  0.72196257  0.18624029
   0.10544643  0.66017917  0.68050479
   0.33411597  0.74534288  0.71841281
   0.32083634  0.12203547  0.11500878
   0.15273208  0.64193824  0.48290415
   0.89507425  0.64649902  0.44612718
   0.44459467  0.54638838  0.54223697
   0.59625907  0.67219880  0.59272992
   0.47571514  0.82499095  0.50520268
unknown system                          
           1
     4.163781   -0.343214    0.118212
     0.017800    4.844475    0.108596
     0.019919   -0.006519    4.891187
   S    H 
   8  24
Direct configuration=   110
   0.80617834  0.31586531  0.60934414
   0.24928476  0.35247300  0.35736831
   0.29630136  1.04367697  0.77723513
   0.85211706  0.94806585  0.37186734
   0.82845479  0.76295388  0.86811187
   0.33994408  0.46157974  0.82771495
   0.30970656  0.81570668  0.18490441
   0.80465813  0.38553448  0.18181342
   0.40444245  0.51472717  0.12358741
   0.00996727  0.41247405 -0.08459798
   0.08635066  0.10165325  0.02860732
   0.59098229  0.94806367  0.63663164
   0.49810532  0.19345627  0.44460105
   0.49714411 -0.00615325  0.31066252
   0.71080209  0.05578406 -0.14526295
   0.99958057  0.19385953  0.80209723
   0.20576831  0.91287210  0.48053587
   0.61972817  0.12806373  1.03131409
   0.89668446  0.12100726  0.08386512
   0.56590810  0.75215405  0.03846091
   0.11593995  0.72663450  0.99727071
   0.72545160  0.38817773  0.91307795
   0.60060008  0.67236675  0.33007944
  -0.14860514  0.66640414  0.18056457
   0.04012210  0.56718184  0.65607964
   0.18063519  0.74156527  0.63292752
   0.29190487  0.18885712  0.17511593
   0.04358269  0.64163978  0.41098330
   0.82145126  0.60512958  0.46606163
   0.51905093  0.49569239  0.54142228
   0.72512930  0.68157482  0.62562588
   0.40827712  0.72226092  0.52933365
unknown system                          
           1
     4.187718   -0.369721    0.126500
     0.017826    4.843940    0.115609
     0.019955   -0.006531    4.900048
   S    H 
   8  24
Direct configuration=   120
   0.79265871  0.28216583  0.59950064
   0.23277243  0.34099083  0.34029717
   0.31499627  1.04918569  0.75719282
   0.85314442  0.96011501  0.37461338
   0.81589787  0.77363171  0.87256428
   0.36953037  0.48349796  0.81671275
   0.27827863  0.80991530  0.18979741
   0.81402190  0.38558450  0.17885218
   0.46505881  0.49640695  0.12057962
   0.08613141  0.43260197 -0.02136909
   0.03823746 -0.02002465  0.04644269
   0.45762501  0.84608999  0.59810749
   0.48720398  0.16438929  0.47097890
   0.47452575  0.10730847  0.27725327
   0.70145781  0.02860541 -0.11535772
   1.01827571  0.13224073  0.70988805
   0.16496777  0.97369801  0.52729948
   0.54388577  0.05559669  1.07266883
   0.95913492  0.14207939 -0.02207932
   0.53176877  0.75215926  0.03101481
   0.15856582  0.67556386  0.93198113
   0.67131945  0.31069241  0.86917627
   0.50813192  0.76356243  0.39284449
  -0.18703754  0.68632172  0.22693942
   0.06659387  0.49329195  0.65945508
   0.09054515  0.68367568  0.53891512
   0.25024428  0.20015037  0.10336609
   0.09875808  0.62541423  0.33438798
   0.79852742  0.60426274  0.49546359
   0.51231142  0.50417690  0.45581163
   0.67275171  0.77217540  0.55498471
   0.35532370  0.68401421  0.55348273
unknown system                          
           1
     4.212424   -0.396502    0.133665
     0.017853    4.844220    0.121837
     0.020000   -0.006545    4.911063
   S    H 
   8  24
Direct configuration=   130
   0.77293901  0.26827868  0.60665934
   0.22186347  0.32643391  0.32406044
   0.33346458  1.03903622  0.74331040
   0.84860855  0.97842773  0.36216155
   0.81133726  0.78247575  0.85968241
   0.39910368  0.49265473  0.80575332
   0.25145069  0.81948343  0.19485331
   0.82674444  0.39424946  0.16500007
   0.51049444  0.48124049  0.11943761
   0.04421514  0.43972929 -0.07910308
  -0.12388717 -0.01469991  0.06975575
   0.35895076  0.82187217  0.57378441
   0.41641049  0.19450835  0.47239762
   0.56868899  0.17486900  0.22712869
   0.59220469  0.06054016 -0.07471060
   0.91815586  0.04517467  0.79270252
   0.15614181  0.98622272  0.53995189
   0.48882480  0.05987023  1.09623441
   1.07932167  0.19194668 -0.03175057
   0.58172004  0.75455853  0.09010045
   0.20799116  0.74999076  0.84861177
   0.72544645  0.26972878  0.92446560
   0.46481045  0.79682621  0.40877716
  -0.25868625  0.68315713  0.29063908
  -0.01370451  0.41514894  0.77449294
  -0.03886298  0.70644419  0.57064393
   0.23423171  0.21510231  0.00340339
   0.01550886  0.57822582  0.46928925
   0.74025559  0.54805524  0.56891070
   0.49239852  0.52469686  0.38969459
   0.64448024  0.77429446  0.58597405
   0.16211213  0.58538215  0.56054308
unknown system                          
           1
     4.236768   -0.422651    0.140125
     0.017881    4.844808    0.128321
     0.020053   -0.006562    4.923996
   S    H 
   8  24
Direct configuration=   140
   0.76760177  0.26904748  0.62221237
   0.21274623  0.32769608  0.30381725
   0.33785149  1.01549073  0.73040836
   0.83775107  0.98988283  0.33792110
   0.81237361  0.76904336  0.84239529
   0.40844962  0.49255127  0.79054953
   0.22643753  0.81647507  0.19898497
   0.82674126  0.42251042  0.14715982
   0.43950973  0.51757149  0.06375914
   0.17028578  0.60875241 -0.02685578
  -0.22004360  0.05686523  0.06630968
   0.25989562  0.69320662  0.59865197
   0.45789579  0.12634677  0.45491739
   0.59707518  0.25527381  0.29219808
   0.48745484  0.14939843 -0.01443023
   0.89251607  0.08744306  0.77855530
   0.08742362  0.95090145  0.51489562
   0.44902164  0.05030966  1.21895697
   1.08946261  0.10944488 -0.02435353
   0.56329691  0.73253310  0.14111229
   0.23646151  0.79244303  0.89512021
   0.73580519  0.21081614  0.94033913
   0.54188427  0.81182055  0.38780112
  -0.12362395  0.65421848  0.31603143
   0.08763712  0.42474756  0.76083139
  -0.02449104  0.79731252  0.58940495
   0.32510749  0.23799012  0.07989802
  -0.10569334  0.62939925  0.50018485
   0.54202914  0.54492961  0.47382714
   0.48671171  0.57193086  0.34407794
   0.56949960  0.88215466  0.62921694
   0.20335202  0.53204299  0.55019281
unknown system                          
           1
     4.259262   -0.448163    0.145189
     0.017909    4.846204    0.133950
     0.020108   -0.006580    4.937457
   S    H 
   8  24
Direct configuration=   150
   0.77104873  0.28648229  0.63811920
   0.20052495  0.32832405  0.30411205
   0.33508170  1.00165645  0.72012757
   0.83190666  1.00006880  0.30295420
   0.81636925  0.75127942  0.84642852
   0.40983047  0.48931655  0.77232869
   0.20584669  0.80850099  0.21064143
   0.82027104  0.45153102  0.12795350
   0.49827946  0.50743293  0.07576541
   0.11632433  0.55744580  0.01755744
  -0.22903879 -0.00514995 -0.02667229
   0.22478622  0.67520912  0.58362559
   0.35608603  0.08114706  0.40029214
   0.54240771  0.34990534  0.32005381
   0.51762663  0.06502808 -0.00712734
   1.02807208  0.08948962  0.73515028
   0.11184304  1.02543016  0.52011049
   0.54346092  0.03422391  1.28934672
   1.12150688  0.07958174 -0.02246108
   0.57523385  0.81266539  0.05577403
   0.32463866  0.77613759  0.89220265
   0.66980333  0.23841027  0.95534541
   0.66281747  0.69496382  0.44001057
  -0.08039748  0.62749203  0.34967880
   0.05558135  0.33112754  0.83204904
   0.00687798  0.70646842  0.58282749
   0.26884543  0.26899152  0.02404088
  -0.21497344  0.53695662  0.54767529
   0.50492159  0.58069609  0.46379993
   0.50360515  0.66113237  0.25353434
   0.65464853  0.86010775  0.59401285
   0.08053978  0.51250387  0.48577532
unknown system                          
           1
     4.279961   -0.473542    0.148890
     0.017935    4.847397    0.139167
     0.020152   -0.006595    4.948359
   S    H 
   8  24
Direct configuration=   160
   0.77755819  0.28714964  0.65162931
   0.20781401  0.32246112  0.30851242
   0.32807712  0.98801559  0.71033947
   0.81958757  1.01401224  0.27182563
   0.82696814  0.73397170  0.83371045
   0.38587982  0.47214937  0.76049364
   0.19652571  0.81263692  0.22443674
   0.81085190  0.45447491  0.11366310
   0.46330528  0.49409578  0.16030421
   0.16084571  0.55177931 -0.07452532
  -0.09237722  0.06996424 -0.10324834
   0.29112432  0.71080433  0.51823488
   0.31685933  0.07437248  0.38789833
   0.58812192  0.31738148  0.44173612
   0.49619669  0.04649684 -0.02423376
   0.99714089  0.09448059  0.68602071
  -0.01514821  0.97054704  0.50933816
   0.50552572  0.00334910  1.31863346
   1.08434485  0.04218048  0.00762333
   0.58312206  0.82835925  0.05439872
   0.38900361  0.74079688  0.91921650
   0.60681300  0.17733559  1.02543409
   0.63463146  0.68200924  0.39096969
  -0.07821165  0.66485941  0.31305466
  -0.02308489  0.31288032  0.87951468
   0.08352012  0.70392746  0.65029665
   0.18247225  0.26432016  0.00406256
  -0.22374624  0.59733498  0.49944158
   0.39378011  0.57236370  0.39237176
   0.56369306  0.75061025  0.23512771
   0.67440648  0.88275402  0.61412348
   0.05164499  0.47466368  0.61294905
unknown system                          
           1
     4.298058   -0.499194    0.152143
     0.017965    4.847862    0.146079
     0.020185   -0.006606    4.956354
   S    H 
   8  24
Direct configuration=   170
   0.76750848  0.28022388  0.66226440
   0.21455748  0.32467523  0.30797316
   0.32799088  0.98028351  0.70296863
   0.81067658  1.03158223  0.24853104
   0.84520194  0.73351585  0.81609504
   0.36035006  0.44198160  0.75586120
   0.19467388  0.81283622  0.22774914
   0.79633200  0.42831261  0.11590904
   0.50500973  0.48397494  0.05753172
   0.17482571  0.60479627 -0.04967873
  -0.08235581  0.05043600 -0.07252593
   0.36263712  0.77980663  0.50732149
   0.35219861  0.14403894  0.45830760
   0.60217204  0.30976277  0.40660693
   0.43780010  0.12162888 -0.03354271
   1.03307313  0.08040191  0.54917195
  -0.15175227  0.79853307  0.52160736
   0.50808643  0.02350846  1.36158597
   1.15476380 -0.01272183 -0.03124528
   0.63267270  0.84444152 -0.00703705
   0.38965788  0.81225720  0.91622775
   0.50881928  0.15598249  1.10741407
   0.55731274  0.68947677  0.44528431
  -0.00958809  0.60035282  0.39952456
   0.01804085  0.25477125  0.95171174
   0.15982622  0.68734251  0.66643228
   0.31870515  0.26151259  0.01837275
  -0.22349838  0.59045197  0.50770479
   0.41770945  0.57277795  0.40148326
   0.57220456  0.73435483  0.17902187
   0.60750550  0.86086759  0.63993411
   0.08580575  0.40056857  0.65939329
unknown system                          
           1
     4.313139   -0.524438    0.155843
     0.017988    4.845911    0.153623
     0.020207   -0.006613    4.961855
   S    H 
   8  24
Direct configuration=   180
   0.74643796  0.25719582  0.68465964
   0.20449830  0.32917945  0.30977141
   0.31735296  0.97642744  0.70131737
   0.81518658  1.03370781  0.24738480
   0.86305842  0.73536353  0.79622920
   0.34342162  0.42789703  0.76055167
   0.18556221  0.80827832  0.21757159
   0.78370497  0.41431051  0.11527560
   0.55660600  0.55806861 -0.02973979
   0.24245329  0.60574674  0.05129483
  -0.14793272  0.04642855 -0.14321219
   0.38332158  0.77717596  0.47731836
   0.51416848  0.18657327  0.49667695
   0.66371762  0.44957129  0.33320576
   0.58534024  0.09859095 -0.05596156
   0.99943398  0.00458645  0.53421661
  -0.20533645  0.76022207  0.40855273
   0.47743616 -0.00684774  1.36732309
   1.19683915 -0.00082096  0.01403456
   0.58819940  0.88255038  0.02734517
   0.46174806  0.74899289  0.89344901
   0.42541591  0.06914236  1.12104769
   0.60977244  0.67479137  0.48416832
   0.11088082  0.60282626  0.47013208
   0.09323609  0.13261524  0.92323227
   0.13341842  0.61471473  0.62851850
   0.27401261  0.32632522  0.02929799
  -0.20424702  0.52740590  0.50129911
   0.45201727  0.51795689  0.41013990
   0.57663795  0.70714341  0.19466222
   0.66763001  0.90448493  0.69358007
   0.06137774  0.37572094  0.56314673
unknown system                          
           1
     4.324074   -0.548613    0.158839
     0.017999    4.841361    0.160123
     0.020220   -0.006617    4.965077
   S    H 
   8  24
Direct configuration=   190
   0.72398727  0.23716503  0.71319241
   0.19990294  0.32694104  0.31989259
   0.29630582  0.97508306  0.69349919
   0.82512751  1.02926327  0.26136562
   0.87939047  0.72727347  0.77436346
   0.32871003  0.42423966  0.76597876
   0.17952546  0.78780634  0.20167309
   0.77638943  0.41042251  0.10625706
   0.54185185  0.54439087  0.01514633
   0.21457284  0.57933751  0.00836346
  -0.09595782  0.00586362 -0.12386070
   0.50146864  0.79720715  0.53082215
   0.62930364  0.21291330  0.37352360
   0.69565528  0.46151705  0.43957428
   0.53048230  0.07670145  0.01640680
   1.05443881 -0.03776395  0.50702902
  -0.20883481  0.70237908  0.25203640
   0.42240273  0.00901355  1.30470948
   1.18211547  0.03369059 -0.05501379
   0.59455061  0.83198177  0.05815918
   0.46724132  0.79934037  0.80480584
   0.41292484  0.14207006  1.09745792
   0.60204066  0.64370457  0.54744163
   0.03738972  0.67464899  0.42719491
   0.00588757  0.20912545  0.93441471
   0.14806910  0.58822812  0.76873215
   0.29905069  0.31262824  0.07876145
  -0.09074826  0.55345287  0.52391812
   0.38383673  0.57873555  0.40521666
   0.54541929  0.71035479  0.18831477
   0.69526366  0.91038313  0.57794215
   0.01260527  0.21421098  0.63422608
unknown system                          
           1
     4.331215   -0.573683    0.161307
     0.017999    4.835044    0.165707
     0.020221   -0.006618    4.965295
   S    H 
   8  24
Direct configuration=   200
   0.70603145  0.21759272  0.73268168
   0.21240756  0.32774836  0.35212821
   0.30029422  0.96840618  0.66746953
   0.82915463  1.02852782  0.27326506
   0.86100943  0.72653581  0.76345878
   0.32092337  0.42248130  0.76545297
   0.17293140  0.76941262  0.16945152
   0.76103995  0.40952104  0.09747167
   0.45533807  0.51810032  0.05976895
   0.23325276  0.57214128  0.01535482
  -0.14704595 -0.05284573 -0.01259462
   0.49289177  0.80907765  0.47824039
   0.51938382  0.32726839  0.40422716
   0.71439861  0.45805139  0.48225061
   0.51027888  0.00892507  0.03847356
   1.09194766 -0.06690516  0.45015177
  -0.21614827  0.67068238  0.23415507
   0.34136845  0.01831828  1.30109773
   1.12067436  0.06244523 -0.04241656
   0.60244550  0.87235341 -0.09395614
   0.51770791  0.69833992  0.84384680
   0.51821632  0.15298195  1.12093588
   0.49461067  0.55753068  0.52700687
   0.02518242  0.65862463  0.45491116
   0.04448950  0.41254694  0.96169293
   0.18517400  0.67213945  0.82002066
   0.22164180  0.22682008 -0.00320437
   0.00347218  0.42076249  0.52901235
   0.40552088  0.66218494  0.40238614
   0.47752650  0.68064510  0.18619237
   0.80065128  0.86711126  0.56303410
   0.00101597  0.09394625  0.67892976
unknown system                          
           1
     4.334916   -0.598780    0.164428
     0.017989    4.827103    0.170363
     0.020208   -0.006613    4.962054
   S    H 
   8  24
Direct configuration=   210
   0.70647749  0.20587051  0.73808894
   0.23611293  0.32529042  0.37410419
   0.31003586  0.96012834  0.64271941
   0.81973074  1.02372906  0.28507287
   0.83719045  0.71644864  0.75880518
   0.30805458  0.41704512  0.75634585
   0.16491333  0.76133581  0.14634113
   0.76092903  0.41202053  0.10215617
   0.43885597  0.38659923  0.08331117
   0.22193567  0.42539507  0.10046795
  -0.23248578 -0.10071298  0.01245739
   0.53474377  0.99002124  0.44431609
   0.61640402  0.35302626  0.42874068
   0.77774018  0.56037996  0.43855538
   0.39350520 -0.02649179  0.02605462
   1.08075016 -0.18616712  0.43132453
  -0.31242250  0.69572086  0.31880485
   0.33064172  0.08455574  1.27817990
   1.06892024  0.03836382  0.00408001
   0.55777801  0.93417130 -0.11599524
   0.55732781  0.60930432  0.81443532
   0.47808208  0.16421940  1.13856959
   0.57889805  0.64389341  0.50844712
   0.04604939  0.57834551  0.52486109
   0.03116501  0.45180579  0.85441183
   0.30034681  0.68505309  0.79439173
   0.22416655  0.18107116  0.04528727
  -0.10165833  0.33368894  0.58822454
   0.41455462  0.67241226  0.32445247
   0.60702517  0.81755626  0.13774473